57
Lattice="26.26281278527547 0.0 0.0 0.0 26.26281278527547 0.0 0.0 0.0 26.26281278527547" Properties=species:S:1:pos:R:3:momenta:R:3:forces:R:3 T=350 time_step_fs=1.0 temperature_K=350.0 timestep_fs=1.0 file_name=/home/dullersma/MEP_26/DFT_traj_nanoparticle/DFT_benchmark_base_atoms57_stableF_optimized2.xyz energy=-115582.57823698 free_energy=-115582.57823698 stress="0.10528607678763 -7.3248206006609e-05 0.0001361759439511 -7.3248206006609e-05 0.10505347556019 1.7557644225443e-05 0.0001361759439511 1.7557644225443e-05 0.10549004958539" pbc="F F F"
Ga      11.46671156       9.01700843       9.82065595       0.04599740       2.37610587      -1.67148357       0.17188902      -0.09197097       0.01880473
Ga      16.23068883       8.76955519      11.26479843       0.23575543       0.50099311      -0.43790535      -0.93689591      -0.59251630      -0.24781147
Ga      10.12101723      11.10689799       8.77954733       2.07709286       1.19514951       0.17877244       0.44917586       0.35069668       0.01564855
Ga      13.85257786       7.45923537      12.43524145       0.59064514      -2.02355355       0.61680716       0.13434744      -0.65386928       0.06317448
Ga      15.21244779      10.90954955       9.96804665      -0.49000302      -0.96585890      -1.16361209      -0.12355124       0.04991811       0.12641418
Ga      15.01005912       9.33642059      16.24655506      -0.93219787       0.63477256      -0.27344038      -0.05810807       0.04705123       0.50583565
Ga      12.93229564      11.53781127       8.63477877      -0.80108135       0.56974248      -0.06007947      -0.06310724       0.20144624       0.10384470
Ga      12.47950340      15.02700904      11.40977140       0.37833604       0.95838935      -0.93880734      -0.54123436       0.73418008       1.21974023
Ga       8.64492067      12.39036919      10.84648880       2.05577132       1.93909628      -2.06949756       0.08980303      -0.02212804      -0.43293604
Ga      16.79341209      11.27233882      14.58234621      -0.76656473      -0.47932856       0.55780723       0.24688400       0.09081307       0.12187581
Ga      13.22162080       9.94793854      12.11060730       1.56360776      -0.76508105      -1.50064865       0.99742272       1.49588496      -0.11429852
Ga      10.83509090      10.22706324      13.92946938      -3.16699088      -0.64999875       0.01867590      -0.56976706       0.99105683       0.53799369
Ga      16.73996303      14.81641398       9.06011943       0.92042809       0.64075983       0.90583207       0.27653913      -0.15572394       0.33813557
Ga      12.89283860      14.83989109       8.89808573       0.07678517      -1.53434327       1.12650666       1.10177006      -0.91418319      -0.96474259
Ga      15.05486944      13.21175989       8.29731691       1.26182621       1.01176861      -0.02146310      -0.75727526      -0.53930251      -0.05956161
Ga      11.11411786      11.26282192      11.52326613      -2.39067169      -0.43794235       1.09643236       0.65295920       0.67891907       0.21797404
Ga       9.10344158      14.41881256      14.14773804       1.34435585       1.42189793       0.61759917      -0.36439991       0.68179239       0.71199526
Ga       9.46138771      14.85146145      11.73139167      -0.29161082      -2.29996201       0.52094996       0.48909473       0.18760345      -0.59699660
Ga      15.55712939      18.14749875      14.78720490      -0.91081287      -0.43163572      -1.23870816       0.25090985      -0.09692641      -0.23146580
Ga       9.16328013       9.76284727      10.86992889       0.54717620      -0.76755535       0.42972513      -0.61523109      -0.77920568       0.21851569
Ga      13.97569042       8.42941145       9.94182986       2.22198295       0.13892376      -0.67105332       0.07556665       0.34830333       0.20878137
Ga      10.93065087      16.17017940       9.46890211       0.63815375       0.41316187       0.24504178      -0.72010156       0.44709492       0.43078943
Ga      15.62350514      12.67634123      12.64830463      -0.96751862      -1.46431703       1.21038477       0.18050142      -0.54877231      -0.54454748
Ga      17.10932563      12.60970145      10.41106093      -0.45428525       0.91181037      -0.41377463      -0.20024962      -0.17569274       0.33527724
Ga      15.51502844       9.06575579      13.82639383       0.95978636      -3.56922693       0.87352737       0.16432265      -0.30478656      -0.71256319
Ga      17.62413044      16.21285839      15.36882982       0.52482195      -0.80848237      -0.40042256      -0.28173106       0.07672463      -0.41754246
Ga      15.86837129      14.34728467      16.31377799      -0.90911172      -1.33477877       0.31313530       0.89765237      -0.49802171      -0.42179323
Ga      14.20188131      11.33871721      14.18454783      -0.27988370      -0.31519080      -1.20915587      -0.26065924      -0.46407936      -1.50452313
Ga       8.84753959      12.03417654      13.36543007      -1.56624480       0.28447364      -0.21562306       0.17522079      -0.72203762       0.15689941
Ga      12.56828989      16.63565282      17.49856558      -2.70996218       0.26832857       1.00758630      -0.28356229      -0.34853168       0.14057582
Ga      14.80036336      12.02568670      16.56664448       0.14526889      -0.82351869       0.81183567       0.58497079      -0.16689350       0.74637184
Ga      10.03891504      12.46066796      15.75365130      -0.95989316       0.93197042      -0.95461193      -0.19102503      -0.46984829      -0.36418814
Ga      17.58654388      10.51733455      12.16110159      -1.12034472       2.30986324      -0.06156779       0.38958171       1.14819049       0.10877011
Ga      13.95105129      16.95653948       9.74003914       0.74956317      -1.53634483      -3.03941235      -0.08368758       0.49426251       0.04131772
Ga      11.02947718      13.42330969       9.78086823       0.07889906      -0.78823754      -1.22402094      -0.44801426      -0.49977164      -0.05155157
Ga      14.41181883      17.13625295      12.50725239      -1.14011758       1.61408112       0.37375387       0.35278202      -0.16454886      -0.31171472
Ga      11.36155042       8.36067345      12.49514891       2.25293001      -1.33868202       1.40465856      -1.04440247      -1.30321787      -0.76261395
Ga      13.46401235      16.18328846      15.07902769       0.82107412      -1.70017712      -1.60735236       0.84230532      -0.66763600      -0.34905328
Ga      11.74524906      12.76065163      17.57674848       0.50347686       0.77369561       1.35660095       0.54065375      -0.02649655       0.24669185
Ga      14.97156754      14.83819703      11.21561065      -1.62773349       0.38643686      -1.26748147       0.60124249      -0.05562545      -0.41200927
Ga      12.83488320       8.71338421      14.58645497      -0.12952179      -1.97149461      -0.17561829       0.51385848      -0.44535192       0.32036733
Ga      16.47143912      17.01122062      10.06777154       1.17790710       1.95458877      -0.46014423       0.18935872       0.75628984       0.23574482
Ga      11.31835317      16.04708339      13.76746808      -0.16943012       1.97178348      -0.01637855      -0.51367482       0.97920226      -1.63660522
Ga      11.43858774      13.43960016      13.36462780      -3.53426059      -1.03301554       2.42671490       0.10839096      -0.80008358      -1.04796367
Ga      13.33103868      12.76270361      11.16171943      -1.09994635       1.06390110       0.99225733       0.35374412      -1.44034547       0.00494812
Ga      11.23292826      14.79860395      15.83291852      -0.67385021       0.69125544       1.29298245      -0.44817920       0.33261551       1.52254554
Ga      11.92577608      17.56172268      11.39391505       2.03744964      -1.31136374       1.57787935      -0.02521181       0.23867831       0.51880010
Ga      12.54786001      10.80203487      15.93745672       0.71452302       0.31554942      -0.23209453      -0.89971818       0.25279298       0.47924591
Ga      13.24084205      13.49167579      14.99805356      -1.18487022       0.79215406       0.59387637       0.52540405       0.16530956       0.00793899
Ga      13.90498623      14.41511714      17.85662180       0.84111871      -1.57777446       1.29655501      -0.69583352      -0.16515236       0.18536314
Ga      17.05063945      17.12889695      12.67699698       0.96850811       3.01156165      -0.41472204      -0.21918471       0.14280583       0.46763426
Ga      15.53212169      14.92019145      13.70620075       1.04038142       0.15368700      -0.94732674      -0.20331618       0.85323116       0.59640174
Ga      17.85505413      13.67135461      14.38923106      -0.78023699      -0.25294496      -0.19929870       0.07787326       0.08938050       0.15760026
Ga      17.76806701      14.81147444      11.90342371      -0.39851988       1.19765268       1.43112715      -0.08170976      -0.36569070       0.03423082
Ga      13.39643494      18.66945097      16.33459206       3.33187119      -0.45764989       0.12020581       0.24517523       0.34559784      -0.02862094
Ga      12.70694838      18.38821519      13.84464286      -0.73675223       0.22193916      -0.93348827      -0.65547337       0.49477493      -0.24915848
Ga      15.33407176      16.71963668      16.98812157       0.08692304      -0.01703489       0.42196229      -0.03725102       0.31878408       0.28796910
57
Lattice="26.26281278527547 0.0 0.0 0.0 26.26281278527547 0.0 0.0 0.0 26.26281278527547" Properties=species:S:1:pos:R:3:momenta:R:3:forces:R:3 T=350 time_step_fs=1.0 temperature_K=350.0 timestep_fs=1.0 file_name=/home/dullersma/MEP_26/DFT_traj_nanoparticle/DFT_benchmark_base_atoms57_stableF_optimized2.xyz energy=-115582.77392304 free_energy=-115582.77392304 stress="0.10558796305968 -0.00012335696403086 7.7197343686954e-05 -0.00012335696403086 0.10568565041526 -0.0002297467317974 7.7197343686954e-05 -0.0002297467317974 0.10544254180663" pbc="F F F"
Ga      11.55076925       9.20750964       9.84723780       0.04599740       2.37610587      -1.67148357       0.83215892      -0.82994139      -0.43774331
Ga      16.37801003       8.76133694      11.38995782       0.23575543       0.50099311      -0.43790535      -0.79725350      -1.09745903      -1.04516231
Ga      10.16772657      11.07888710       9.02832289       2.07709286       1.19514951       0.17877244      -0.01799108       0.84796285      -0.63187581
Ga      13.80921669       7.42319978      12.32503348       0.59064514      -2.02355355       0.61680716      -0.14284443      -0.42843472      -0.13998907
Ga      15.13730847      10.84346347       9.92506742      -0.49000302      -0.96585890      -1.16361209       0.52037828       0.35401227       0.03282871
Ga      15.01853145       9.20018423      16.31897707      -0.93219787       0.63477256      -0.27344038      -0.08511245       0.22610812      -0.20990475
Ga      12.79968799      11.60654671       8.56165570      -0.80108135       0.56974248      -0.06007947      -0.46131034      -0.00136697       0.24573801
Ga      12.61710069      15.03163905      11.56192241       0.37833604       0.95838935      -0.93880734      -1.10234918       0.80861861       0.24495807
Ga       8.79161169      12.27658776      10.93962779       2.05577132       1.93909628      -2.06949756      -0.16110732       0.28571079      -0.24944726
Ga      16.82581178      11.26550244      14.57196810      -0.76656473      -0.47932856       0.55780723       0.19106252       0.47467485       0.48743614
Ga      13.37438743      10.09940405      11.97625139       1.56360776      -0.76508105      -1.50064865       0.27147878       0.23843619       0.61500929
Ga      10.80681326      10.24465225      14.10782127      -3.16699088      -0.64999875       0.01867590       0.21334145      -0.16068626       0.00057619
Ga      16.82040608      14.97988906       9.28960920       0.92042809       0.64075983       0.90583207      -0.20123811      -1.18994141      -0.39572302
Ga      12.98966351      14.93776548       8.79492145       0.07678517      -1.53434327       1.12650666       0.56557088      -0.29772081      -0.25137123
Ga      14.98637221      12.85597184       8.24600359       1.26182621       1.01176861      -0.02146310       0.12315682       0.57081193       0.06491317
Ga      11.14395536      11.15158858      11.53642408      -2.39067169      -0.43794235       1.09643236       0.33824651       0.86206722       0.69883505
Ga       8.91108950      14.64621969      14.17640268       1.34435585       1.42189793       0.61759917       0.09998739       0.00740557      -0.09621439
Ga       9.51323267      14.92408736      11.60067582      -0.29161082      -2.29996201       0.52094996       0.03153596      -0.19140699       0.16826637
Ga      15.38456674      18.13907561      14.64478322      -0.91081287      -0.43163572      -1.23870816       0.62797212       0.01590624       0.88199645
Ga       9.10171246       9.54467855      10.92685245       0.54717620      -0.76755535       0.42972513      -0.42287280      -0.32418739       0.29658675
Ga      14.13277265       8.58411380      10.06038219       2.22198295       0.13892376      -0.67105332      -0.25497776      -0.40256495      -0.48769388
Ga      10.81674169      16.32075252       9.67225918       0.63815375       0.41316187       0.24504178       0.02280732      -0.21603743      -0.02451916
Ga      15.77358076      12.75046410      12.47964855      -0.96751862      -1.46431703       1.21038477      -0.03835733      -0.53249544       0.99279360
Ga      17.03413110      12.72176956      10.34124077      -0.45428525       0.91181037      -0.41377463      -0.00378231      -0.49414275      -0.11462692
Ga      15.45270742       8.80611743      13.72926879       0.95978636      -3.56922693       0.87352737       0.81878409       0.02915771       0.40745257
Ga      17.76111057      16.42339149      15.20335495       0.52482195      -0.80848237      -0.40042256      -0.39437698      -0.16074944       0.65698566
Ga      16.21007412      14.13251555      16.35513182      -0.90911172      -1.33477877       0.31313530      -0.16106391       0.40293588      -0.03805765
Ga      14.36674708      11.13879897      14.05798577      -0.27988370      -0.31519080      -1.20915587      -0.68178759       0.55999107      -0.01518559
Ga       9.09665189      11.97958014      13.43338843      -1.56624480       0.28447364      -0.21562306      -0.36164198      -0.09703235      -0.41504971
Ga      12.65592654      16.52299151      17.39949173      -2.70996218       0.26832857       1.00758630      -0.25113989       0.31593410      -0.48061114
Ga      14.90037448      11.87109079      16.65358320       0.14526889      -0.82351869       0.81183567       0.07969040      -0.10733362       0.12141533
Ga      10.01849298      12.59826539      15.65860490      -0.95989316       0.93197042      -0.95461193       0.27203232      -0.10372057       0.52079351
Ga      17.51878710      10.53879470      12.31309657      -1.12034472       2.30986324      -0.06156779       0.78995048       1.37886555      -0.21358640
Ga      14.02543853      17.12082132       9.57658001       0.74956317      -1.53634483      -3.03941235      -0.25655114       0.03140614       0.54882418
Ga      11.21165139      13.62769069       9.88642132       0.07889906      -0.78823754      -1.22402094      -0.69532473      -0.98526235      -0.28947848
Ga      14.46395367      17.34490011      12.54654605      -1.14011758       1.61408112       0.37375387       0.21175735      -0.50090428      -1.45782624
Ga      11.31241552       8.42741514      12.35660299       2.25293001      -1.33868202       1.40465856      -0.42029211      -0.42908223       0.09928597
Ga      13.52889093      15.91915095      14.82567996       0.82107412      -1.70017712      -1.60735236      -1.42965766       0.93932817       0.96669350
Ga      11.87557707      12.56211010      17.74031817       0.50347686       0.77369561       1.35660095      -0.10475212       0.46996658      -0.00928022
Ga      14.93082330      14.81624291      11.33246516      -1.62773349       0.38643686      -1.26748147       1.24226330       0.63130422      -0.59011814
Ga      13.02999270       8.61859088      14.50313681      -0.12952179      -1.97149461      -0.17561829      -0.63603297       0.31171353       0.47959282
Ga      16.53805170      17.13072794      10.16177665       1.17790710       1.95458877      -0.46014423      -0.06357471       0.98681255       0.70552907
Ga      11.10427470      16.06170443      13.58714121      -0.16943012       1.97178348      -0.01637855       0.36261897       0.45151029      -0.27607382
Ga      11.55988784      13.35281168      13.24484178      -3.53426059      -1.03301554       2.42671490      -0.49481773      -0.29094461      -0.41623411
Ga      13.48117157      12.57730762      11.17687223      -1.09994635       1.06390110       0.99225733      -0.10759570      -0.31413969      -0.16725789
Ga      11.08200401      14.90714805      15.99597985      -0.67385021       0.69125544       1.29298245       0.20939471       0.35801674       0.45169259
Ga      11.93569251      17.64938418      11.47396268       2.03744964      -1.31136374       1.57787935       0.20693918      -0.03606394       0.04620748
Ga      12.47389474      10.85058564      16.01178259       0.71452302       0.31554942      -0.23209453       0.04228372      -0.49619042      -0.46432332
Ga      13.11866241      13.37527740      15.09977433      -1.18487022       0.79215406       0.59387637       0.49983183      -0.39486174       0.26113988
Ga      13.87518980      14.31785268      17.82714787       0.84111871      -1.57777446       1.29655501       0.01041323      -0.31711940      -0.21932183
Ga      17.14177203      17.08436306      12.92828907       0.96850811       3.01156165      -0.41472204      -0.35141791       0.43257080      -0.64888659
Ga      15.39309706      15.05487399      13.84111820       1.04038142       0.15368700      -0.94732674       1.64538442      -0.57833715      -0.34530322
Ga      17.98629302      13.86238006      14.43586251      -0.78023699      -0.25294496      -0.19929870      -0.17910195      -0.17302111       0.02518389
Ga      17.80118601      14.81664972      12.04143122      -0.39851988       1.19765268       1.43112715      -0.11378696      -0.16120711      -0.34216345
Ga      13.49439925      18.82349690      16.22816968       3.33187119      -0.45764989       0.12020581      -0.08668170      -0.51127908       0.07480282
Ga      12.60896952      18.59463417      13.70702754      -0.73675223       0.22193916      -0.93348827      -0.46624513      -0.05808849       0.51844065
Ga      15.24409010      16.65311704      17.07544204       0.08692304      -0.01703489       0.42196229       0.37328071      -0.01078296      -0.29496754
57
Lattice="26.26281278527547 0.0 0.0 0.0 26.26281278527547 0.0 0.0 0.0 26.26281278527547" Properties=species:S:1:pos:R:3:momenta:R:3:forces:R:3 T=350 time_step_fs=1.0 temperature_K=350.0 timestep_fs=1.0 file_name=/home/dullersma/MEP_26/DFT_traj_nanoparticle/DFT_benchmark_base_atoms57_stableF_optimized2.xyz energy=-115582.58259003 free_energy=-115582.58259003 stress="0.10565592517426 -0.00010645655975706 -2.6426159965594e-05 -0.00010645655975706 0.10581572207145 0.00023088280157114 -2.6426159965594e-05 0.00023088280157114 0.10560773663303" pbc="F F F"
Ga      11.49519811       9.05829008       9.81217603       0.04599740       2.37610587      -1.67148357       0.37856067       0.08008358      -0.30654642
Ga      16.23342867       8.78258267      11.17371296       0.23575543       0.50099311      -0.43790535       0.24757098      -0.67587439       0.24859280
Ga      10.09703430      11.19137853       8.85396073       2.07709286       1.19514951       0.17877244      -0.25868499      -0.89724601      -0.34117435
Ga      13.94164695       7.17106848      12.32969054       0.59064514      -2.02355355       0.61680716      -0.30202034       0.19856994      -0.13939941
Ga      15.28657375      10.72331389       9.98708684      -0.49000302      -0.96585890      -1.16361209      -0.05377038       1.50078550      -0.38810125
Ga      14.90362362       9.43594350      16.11652476      -0.93219787       0.63477256      -0.27344038       0.22417866      -0.48191841       0.32326564
Ga      12.66364725      11.57079817       8.66531752      -0.80108135       0.56974248      -0.06007947       0.77138912      -0.18367730       0.08858432
Ga      12.58130926      15.22413653      11.71366073       0.37833604       0.95838935      -0.93880734       0.45843679      -0.54910757      -0.43668875
Ga       8.73439723      12.30969848      10.78782248       2.05577132       1.93909628      -2.06949756      -0.36756110       0.10763788      -0.69075934
Ga      16.73723923      11.20234258      14.69248504      -0.76656473      -0.47932856       0.55780723       0.12790140       0.25465309      -0.51215529
Ga      13.38301007       9.85736106      12.01926974       1.56360776      -0.76508105      -1.50064865       0.09893816       0.68657349       0.12642924
Ga      10.65695278      10.16903048      14.01715126      -3.16699088      -0.64999875       0.01867590      -0.24989916       0.14263158       0.10960854
Ga      16.64353850      14.86854050       9.06980675       0.92042809       0.64075983       0.90583207      -0.09490564       0.00170426      -0.03015937
Ga      13.03888004      14.77303631       8.87523226       0.07678517      -1.53434327       1.12650666      -0.12705660       0.15557078       0.48682015
Ga      14.88403448      12.95229097       8.36311898       1.26182621       1.01176861      -0.02146310       0.01955572      -0.11023545       0.09024291
Ga      11.16219760      11.22301156      11.63982208      -2.39067169      -0.43794235       1.09643236       0.07255495       0.03833958      -0.08597390
Ga       8.95584138      14.77182977      14.27149991       1.34435585       1.42189793       0.61759917      -0.58670465      -0.88463158       0.34034791
Ga       9.45469034      14.69438296      11.77162184      -0.29161082      -2.29996201       0.52094996       0.31869820       0.15263311      -0.58729527
Ga      15.68320728      18.05523356      14.52407163      -0.91081287      -0.43163572      -1.23870816      -0.72598867       0.50335626       1.89059559
Ga       9.16196186       9.60915935      10.87960838       0.54717620      -0.76755535       0.42972513      -0.45251617      -0.20507203       0.11865024
Ga      14.02035699       8.60789424       9.88162659       2.22198295       0.13892376      -0.67105332      -0.56328257      -0.70148924      -0.05313863
Ga      10.92179133      16.22400500       9.77975979       0.63815375       0.41316187       0.24504178      -0.30217805      -0.54517080      -0.38943957
Ga      15.60550012      12.73787226      12.56984148      -0.96751862      -1.46431703       1.21038477       0.46728778      -1.58410269      -0.01293569
Ga      17.15330018      12.59575898      10.21941064      -0.45428525       0.91181037      -0.41377463      -0.30036159       0.17380675       0.32412716
Ga      15.72861302       8.68983373      13.69666724       0.95978636      -3.56922693       0.87352737      -0.04419300       0.42627103       0.26935805
Ga      17.56841269      16.19124601      15.29184617       0.52482195      -0.80848237      -0.40042256      -0.15383656       0.03983181       0.11169212
Ga      16.02662121      14.16286312      16.33667854      -0.90911172      -1.33477877       0.31313530       0.59014529       0.00087693      -0.55210268
Ga      14.16278097      11.20603293      14.11548430      -0.27988370      -0.31519080      -1.20915587       0.16905149       0.37187908      -0.80254780
Ga       8.83890524      12.07913263      13.18367183      -1.56624480       0.28447364      -0.21562306       0.38428710      -0.12686309       1.28700931
Ga      12.55314907      16.63108030      17.38305123      -2.70996218       0.26832857       1.00758630      -0.60707331      -0.83590656       0.03499906
Ga      14.83249608      11.93237433      16.75155355       0.14526889      -0.82351869       0.81183567      -0.12578938       0.02886355       0.04332248
Ga      10.23161360      12.53632947      15.82641998      -0.95989316       0.93197042      -0.95461193      -0.99497974      -0.38187717      -0.94851857
Ga      17.71086466      10.74072301      11.92765706      -1.12034472       2.30986324      -0.06156779      -0.32267491       0.26674939       0.33560654
Ga      13.86554214      17.21341539       9.87518114       0.74956317      -1.53634483      -3.03941235      -0.23950786      -0.38263823      -0.07799768
Ga      10.97328525      13.26100939       9.74001079       0.07889906      -0.78823754      -1.22402094       0.55335805       1.62355768       0.50661538
Ga      14.62051943      17.31858491      12.44489297      -1.14011758       1.61408112       0.37375387      -1.49742604      -0.19541606      -0.51960584
Ga      11.13688130       8.23265927      12.27265056       2.25293001      -1.33868202       1.40465856       0.06333498      -0.08922105       0.18025976
Ga      13.66491767      15.96498063      14.89184958       0.82107412      -1.70017712      -1.60735236       0.04915667      -0.03919638      -0.13651457
Ga      11.81452798      12.91219983      17.62912003       0.50347686       0.77369561       1.35660095       0.57657461      -0.16045112       0.45618787
Ga      15.10046774      14.78166029      11.14011728      -1.62773349       0.38643686      -1.26748147      -0.77312757       0.22428450      -0.80971839
Ga      13.01345532       8.78326915      14.32980233      -0.12952179      -1.97149461      -0.17561829      -0.23258742      -0.39657107       0.18460519
Ga      16.46817673      17.26081014      10.16497609       1.17790710       1.95458877      -0.46014423       0.11445311      -0.05833310      -0.13599273
Ga      11.02034997      15.91272786      13.64170797      -0.16943012       1.97178348      -0.01637855       0.95639462       1.18641019      -0.98921644
Ga      11.61833068      13.32100196      13.30216399      -3.53426059      -1.03301554       2.42671490      -0.78530352      -0.27173116      -0.75247233
Ga      13.33675580      12.52299235      11.29769272      -1.09994635       1.06390110       0.99225733       0.27164366       0.23488250      -0.37639412
Ga      11.00762723      15.02270248      15.91467366      -0.67385021       0.69125544       1.29298245       0.36669553       0.03277934       1.14244616
Ga      11.83204850      17.66650953      11.54491958       2.03744964      -1.31136374       1.57787935       0.01660822       0.30270384      -0.19377771
Ga      12.39823569      10.70399415      15.97443205       0.71452302       0.31554942      -0.23209453      -0.34981503       0.37183021       0.23297556
Ga      13.08742475      13.39852218      15.14679727      -1.18487022       0.79215406       0.59387637       0.79559849       0.06700169       0.49156615
Ga      13.89161665      14.48164761      17.64750632       0.84111871      -1.57777446       1.29655501      -0.41359788      -0.38260847       0.36358463
Ga      17.06830900      17.18082355      12.78253676       0.96850811       3.01156165      -0.41472204       1.39694404      -0.42716828      -0.56932735
Ga      15.67252020      14.95885108      13.55168622       1.04038142       0.15368700      -0.94732674      -0.49814763       0.91229551       1.67590374
Ga      18.02444133      13.70646966      14.41152885      -0.78023699      -0.25294496      -0.19929870      -0.20921353      -0.21127464       0.19476752
Ga      17.74000347      14.80027667      11.98799223      -0.39851988       1.19765268       1.43112715       0.49988307      -0.02451607      -0.45242867
Ga      13.48025237      18.55204929      16.35973108       3.33187119      -0.45764989       0.12020581       0.76607159       0.61067598      -1.09376277
Ga      12.30843503      18.31737392      13.82438294      -0.73675223       0.22193916      -0.93348827       0.58350843       0.06143679       0.90055358
Ga      15.32233537      16.60362537      17.22756843       0.08692304      -0.01703489       0.42196229       0.22359207       0.44569976      -0.46337926
57
Lattice="26.26281278527547 0.0 0.0 0.0 26.26281278527547 0.0 0.0 0.0 26.26281278527547" Properties=species:S:1:pos:R:3:momenta:R:3:forces:R:3 T=350 time_step_fs=1.0 temperature_K=350.0 timestep_fs=1.0 file_name=/home/dullersma/MEP_26/DFT_traj_nanoparticle/DFT_benchmark_base_atoms57_stableF_optimized2.xyz energy=-115582.72187761 free_energy=-115582.72187761 stress="0.10558828713508 -0.00017959977131393 0.00019709389377188 -0.00017959977131393 0.1057263364739 0.00015500826252084 0.00019709389377188 0.00015500826252084 0.10561996116406" pbc="F F F"
Ga      11.58900353       9.03337990       9.64449525       0.04599740       2.37610587      -1.67148357      -0.54803823       0.29791801      -0.10782287
Ga      16.10023787       8.53098432      11.26533734       0.23575543       0.50099311      -0.43790535       0.05305005       0.13622672      -0.26256237
Ga      10.15179364      11.11956403       9.02262236       2.07709286       1.19514951       0.17877244      -0.08559504       0.36155749      -0.26989660
Ga      13.81328407       7.28438678      12.29854838       0.59064514      -2.02355355       0.61680716      -0.21266593       0.10087697       0.32171888
Ga      15.24240455      10.85129256      10.06939637      -0.49000302      -0.96585890      -1.16361209      -0.33446078      -0.31477123      -0.35126189
Ga      15.04534882       9.17241061      16.22716082      -0.93219787       0.63477256      -0.27344038      -0.31864147       0.11894064      -0.09331323
Ga      12.63264192      11.61405027       8.69213427      -0.80108135       0.56974248      -0.06007947       0.62226197       0.31853562       0.04420347